<?xml version="1.0" encoding="UTF-8"?>

<!-- generated on 2022-12-11 17:33:07 by Eclipse SUMO sumo Version 1.15.0
<configuration xmlns:xsi="http://www.w3.org/2001/XMLSchema-instance" xsi:noNamespaceSchemaLocation="http://sumo.dlr.de/xsd/sumoConfiguration.xsd">

    <input>
        <net-file value="./scenario/amman.net.xml"/>
        <route-files value="./scenario/amman.rou.xml"/>
    </input>

    <output>
        <tripinfo-output value="./scenario/amman.tripinfo.xml"/>
    </output>

    <time>
        <begin value="0"/>
        <end value="3900"/>
    </time>

    <processing>
        <scale value="2.5"/>
        <time-to-teleport value="-1"/>
    </processing>

    <report>
        <no-warnings value="true"/>
        <no-step-log value="true"/>
    </report>

    <emissions>
        <device.emissions.probability value="1.0"/>
    </emissions>

    <traci_server>
        <remote-port value="53147"/>
    </traci_server>

</configuration>
-->

<tripinfos xmlns:xsi="http://www.w3.org/2001/XMLSchema-instance" xsi:noNamespaceSchemaLocation="http://sumo.dlr.de/xsd/tripinfo_file.xsd">
    <tripinfo id="vehicle_1" depart="0.00" departLane="-E9_0" departPos="5.10" departSpeed="0.00" departDelay="0.00" arrival="25.00" arrivalLane="-E0_0" arrivalPos="92.80" arrivalSpeed="14.73" duration="25.00" routeLength="194.90" waitingTime="0.00" waitingCount="0" stopTime="0.00" timeLoss="11.62" rerouteNo="0" devices="tripinfo_vehicle_1 emissions_vehicle_1" vType="type_0" speedFactor="1.08" vaporized="">
        <emissions CO_abs="2797.040607" CO2_abs="85088.934363" HC_abs="259.192080" PMx_abs="11.563018" NOx_abs="0" fuel_abs="27649.086288" electricity_abs="0"/>
    </tripinfo>
    <tripinfo id="vehicle_0" depart="0.00" departLane="E0_0" departPos="5.10" departSpeed="0.00" departDelay="0.00" arrival="26.00" arrivalLane="E9_0" arrivalPos="92.80" arrivalSpeed="14.69" duration="26.00" routeLength="194.90" waitingTime="0.00" waitingCount="0" stopTime="0.00" timeLoss="12.65" rerouteNo="0" devices="tripinfo_vehicle_0 emissions_vehicle_0" vType="type_0" speedFactor="1.06" vaporized="">
        <emissions CO_abs="2866.016746" CO2_abs="86307.028470" HC_abs="270.465241" PMx_abs="11.680815" NOx_abs="0" fuel_abs="28044.740375" electricity_abs="0"/>
    </tripinfo>
    <tripinfo id="vehicle_3" depart="0.00" departLane="-E11_0" departPos="5.10" departSpeed="0.00" departDelay="0.00" arrival="30.00" arrivalLane="E1_0" arrivalPos="92.80" arrivalSpeed="12.17" duration="30.00" routeLength="189.53" waitingTime="0.00" waitingCount="0" stopTime="0.00" timeLoss="14.07" rerouteNo="0" devices="tripinfo_vehicle_3 emissions_vehicle_3" vType="type_0" speedFactor="0.94" vaporized="">
        <emissions CO_abs="2954.206276" CO2_abs="86726.447161" HC_abs="285.529725" PMx_abs="11.700965" NOx_abs="0" fuel_abs="28181.165579" electricity_abs="0"/>
    </tripinfo>
    <tripinfo id="vehicle_3.1" depart="5.00" departLane="-E11_0" departPos="5.10" departSpeed="0.00" departDelay="5.00" arrival="34.00" arrivalLane="E1_0" arrivalPos="92.80" arrivalSpeed="11.66" duration="29.00" routeLength="189.53" waitingTime="0.00" waitingCount="0" stopTime="0.00" timeLoss="12.54" rerouteNo="0" devices="tripinfo_vehicle_3.1 emissions_vehicle_3.1" vType="type_0" speedFactor="0.86" vaporized="">
        <emissions CO_abs="2905.243780" CO2_abs="85136.476736" HC_abs="284.691128" PMx_abs="11.419858" NOx_abs="0" fuel_abs="27664.362158" electricity_abs="0"/>
    </tripinfo>
    <tripinfo id="vehicle_0.1" depart="5.00" departLane="E0_0" departPos="5.10" departSpeed="0.00" departDelay="5.00" arrival="49.00" arrivalLane="E9_0" arrivalPos="92.80" arrivalSpeed="11.21" duration="44.00" routeLength="194.90" waitingTime="6.00" waitingCount="1" stopTime="0.00" timeLoss="28.50" rerouteNo="0" devices="tripinfo_vehicle_0.1 emissions_vehicle_0.1" vType="type_0" speedFactor="0.94" vaporized="">
        <emissions CO_abs="4581.289765" CO2_abs="122796.490653" HC_abs="476.336732" PMx_abs="15.844977" NOx_abs="0" fuel_abs="39905.942297" electricity_abs="0"/>
    </tripinfo>
    <tripinfo id="vehicle_1.1" depart="5.00" departLane="-E9_0" departPos="5.10" departSpeed="0.00" departDelay="5.00" arrival="49.00" arrivalLane="-E0_0" arrivalPos="92.80" arrivalSpeed="11.19" duration="44.00" routeLength="194.90" waitingTime="6.00" waitingCount="1" stopTime="0.00" timeLoss="30.36" rerouteNo="0" devices="tripinfo_vehicle_1.1 emissions_vehicle_1.1" vType="type_0" speedFactor="1.03" vaporized="">
        <emissions CO_abs="4649.821329" CO2_abs="123682.215814" HC_abs="481.050176" PMx_abs="16.011752" NOx_abs="0" fuel_abs="40194.338597" electricity_abs="0"/>
    </tripinfo>
    <tripinfo id="vehicle_0.2" depart="10.00" departLane="E0_0" departPos="5.10" departSpeed="0.00" departDelay="10.00" arrival="51.00" arrivalLane="E9_0" arrivalPos="92.80" arrivalSpeed="11.70" duration="41.00" routeLength="194.90" waitingTime="2.00" waitingCount="1" stopTime="0.00" timeLoss="26.82" rerouteNo="0" devices="tripinfo_vehicle_0.2 emissions_vehicle_0.2" vType="type_0" speedFactor="1.01" vaporized="">
        <emissions CO_abs="4260.142585" CO2_abs="115433.495301" HC_abs="438.867306" PMx_abs="15.026611" NOx_abs="0" fuel_abs="37512.592063" electricity_abs="0"/>
    </tripinfo>
    <tripinfo id="vehicle_4" depart="0.00" departLane="-E8_0" departPos="5.10" departSpeed="0.00" departDelay="0.00" arrival="52.00" arrivalLane="E11_0" arrivalPos="92.80" arrivalSpeed="14.74" duration="52.00" routeLength="394.90" waitingTime="2.00" waitingCount="1" stopTime="0.00" timeLoss="25.55" rerouteNo="0" devices="tripinfo_vehicle_4 emissions_vehicle_4" vType="type_0" speedFactor="1.09" vaporized="">
        <emissions CO_abs="5064.942745" CO2_abs="154801.529818" HC_abs="506.068282" PMx_abs="20.197006" NOx_abs="0" fuel_abs="50300.394155" electricity_abs="0"/>
    </tripinfo>
    <tripinfo id="vehicle_6" depart="10.00" departLane="-E9_0" departPos="5.10" departSpeed="0.00" departDelay="9.00" arrival="52.00" arrivalLane="-E0_0" arrivalPos="92.80" arrivalSpeed="11.61" duration="42.00" routeLength="194.90" waitingTime="4.00" waitingCount="1" stopTime="0.00" timeLoss="26.12" rerouteNo="0" devices="tripinfo_vehicle_6 emissions_vehicle_6" vType="type_0" speedFactor="0.93" vaporized="">
        <emissions CO_abs="4325.627796" CO2_abs="117252.492340" HC_abs="448.724053" PMx_abs="15.189995" NOx_abs="0" fuel_abs="38103.581501" electricity_abs="0"/>
    </tripinfo>
    <tripinfo id="vehicle_6.1" depart="15.00" departLane="-E9_0" departPos="5.10" departSpeed="0.00" departDelay="14.00" arrival="53.00" arrivalLane="-E0_0" arrivalPos="92.80" arrivalSpeed="11.66" duration="38.00" routeLength="194.90" waitingTime="0.00" waitingCount="0" stopTime="0.00" timeLoss="22.03" rerouteNo="0" devices="tripinfo_vehicle_6.1 emissions_vehicle_6.1" vType="type_0" speedFactor="0.88" vaporized="">
        <emissions CO_abs="3924.170797" CO2_abs="108276.726533" HC_abs="399.333283" PMx_abs="14.230700" NOx_abs="0" fuel_abs="35186.020029" electricity_abs="0"/>
    </tripinfo>
    <tripinfo id="vehicle_4.1" depart="5.00" departLane="-E8_0" departPos="5.10" departSpeed="0.00" departDelay="5.00" arrival="56.00" arrivalLane="E11_0" arrivalPos="92.80" arrivalSpeed="13.93" duration="51.00" routeLength="394.90" waitingTime="0.00" waitingCount="0" stopTime="0.00" timeLoss="22.94" rerouteNo="0" devices="tripinfo_vehicle_4.1 emissions_vehicle_4.1" vType="type_0" speedFactor="1.03" vaporized="">
        <emissions CO_abs="4606.758955" CO2_abs="145139.477711" HC_abs="468.012152" PMx_abs="18.822795" NOx_abs="0" fuel_abs="47158.326798" electricity_abs="0"/>
    </tripinfo>
    <tripinfo id="vehicle_4.2" depart="10.00" departLane="-E8_0" departPos="5.10" departSpeed="0.00" departDelay="10.00" arrival="58.00" arrivalLane="E11_0" arrivalPos="92.80" arrivalSpeed="14.21" duration="48.00" routeLength="394.90" waitingTime="0.00" waitingCount="0" stopTime="0.00" timeLoss="20.05" rerouteNo="0" devices="tripinfo_vehicle_4.2 emissions_vehicle_4.2" vType="type_0" speedFactor="1.05" vaporized="">
        <emissions CO_abs="4180.144688" CO2_abs="135286.846668" HC_abs="426.904741" PMx_abs="17.454013" NOx_abs="0" fuel_abs="43955.740224" electricity_abs="0"/>
    </tripinfo>
    <tripinfo id="vehicle_7" depart="20.00" departLane="-E11_0" departPos="5.10" departSpeed="0.00" departDelay="13.00" arrival="58.00" arrivalLane="E1_0" arrivalPos="92.80" arrivalSpeed="11.04" duration="38.00" routeLength="189.53" waitingTime="1.00" waitingCount="1" stopTime="0.00" timeLoss="22.34" rerouteNo="0" devices="tripinfo_vehicle_7 emissions_vehicle_7" vType="type_0" speedFactor="0.94" vaporized="">
        <emissions CO_abs="3899.216870" CO2_abs="107395.365140" HC_abs="399.046573" PMx_abs="14.076648" NOx_abs="0" fuel_abs="34899.543943" electricity_abs="0"/>
    </tripinfo>
    <tripinfo id="vehicle_5" depart="10.00" departLane="-E11_0" departPos="5.10" departSpeed="0.00" departDelay="10.00" arrival="59.00" arrivalLane="E8_0" arrivalPos="92.80" arrivalSpeed="11.43" duration="49.00" routeLength="394.90" waitingTime="0.00" waitingCount="0" stopTime="0.00" timeLoss="22.25" rerouteNo="0" devices="tripinfo_vehicle_5 emissions_vehicle_5" vType="type_0" speedFactor="1.12" vaporized="">
        <emissions CO_abs="4675.269689" CO2_abs="145629.082834" HC_abs="449.250023" PMx_abs="19.482066" NOx_abs="0" fuel_abs="47318.827043" electricity_abs="0"/>
    </tripinfo>
    <tripinfo id="vehicle_5.1" depart="15.00" departLane="-E11_0" departPos="5.10" departSpeed="0.00" departDelay="15.00" arrival="61.00" arrivalLane="E8_0" arrivalPos="92.80" arrivalSpeed="12.08" duration="46.00" routeLength="394.90" waitingTime="0.00" waitingCount="0" stopTime="0.00" timeLoss="16.60" rerouteNo="0" devices="tripinfo_vehicle_5.1 emissions_vehicle_5.1" vType="type_0" speedFactor="0.99" vaporized="">
        <emissions CO_abs="4104.070513" CO2_abs="133086.106358" HC_abs="400.316509" PMx_abs="17.588537" NOx_abs="0" fuel_abs="43240.994182" electricity_abs="0"/>
    </tripinfo>
    <tripinfo id="vehicle_7.1" depart="25.00" departLane="-E11_0" departPos="5.10" departSpeed="0.00" departDelay="18.00" arrival="61.00" arrivalLane="E1_0" arrivalPos="92.80" arrivalSpeed="11.58" duration="36.00" routeLength="189.53" waitingTime="0.00" waitingCount="0" stopTime="0.00" timeLoss="22.43" rerouteNo="0" devices="tripinfo_vehicle_7.1 emissions_vehicle_7.1" vType="type_0" speedFactor="1.16" vaporized="">
        <emissions CO_abs="3643.014435" CO2_abs="102724.577686" HC_abs="368.963075" PMx_abs="13.586450" NOx_abs="0" fuel_abs="33380.620473" electricity_abs="0"/>
    </tripinfo>
    <tripinfo id="vehicle_9" depart="30.00" departLane="-E11_0" departPos="5.10" departSpeed="0.00" departDelay="21.00" arrival="63.00" arrivalLane="E1_0" arrivalPos="92.80" arrivalSpeed="11.65" duration="33.00" routeLength="189.53" waitingTime="0.00" waitingCount="0" stopTime="0.00" timeLoss="16.37" rerouteNo="0" devices="tripinfo_vehicle_9 emissions_vehicle_9" vType="type_0" speedFactor="0.89" vaporized="">
        <emissions CO_abs="3289.633484" CO2_abs="94644.144670" HC_abs="330.286434" PMx_abs="12.587959" NOx_abs="0" fuel_abs="30754.066944" electricity_abs="0"/>
    </tripinfo>
    <tripinfo id="vehicle_6.2" depart="20.00" departLane="-E9_0" departPos="5.10" departSpeed="0.00" departDelay="19.00" arrival="69.00" arrivalLane="-E0_0" arrivalPos="92.80" arrivalSpeed="11.11" duration="49.00" routeLength="194.90" waitingTime="7.00" waitingCount="1" stopTime="0.00" timeLoss="34.00" rerouteNo="0" devices="tripinfo_vehicle_6.2 emissions_vehicle_6.2" vType="type_0" speedFactor="0.94" vaporized="">
        <emissions CO_abs="4935.827817" CO2_abs="129485.486919" HC_abs="518.758096" PMx_abs="16.625274" NOx_abs="0" fuel_abs="42080.730360" electricity_abs="0"/>
    </tripinfo>
    <tripinfo id="vehicle_14" depart="30.00" departLane="E0_0" departPos="5.10" departSpeed="0.00" departDelay="0.00" arrival="69.00" arrivalLane="E9_0" arrivalPos="92.80" arrivalSpeed="11.54" duration="39.00" routeLength="194.90" waitingTime="1.00" waitingCount="1" stopTime="0.00" timeLoss="24.89" rerouteNo="0" devices="tripinfo_vehicle_14 emissions_vehicle_14" vType="type_0" speedFactor="1.02" vaporized="">
        <emissions CO_abs="4021.821763" CO2_abs="111277.778261" HC_abs="409.173833" PMx_abs="14.634050" NOx_abs="0" fuel_abs="36161.063303" electricity_abs="0"/>
    </tripinfo>
    <tripinfo id="vehicle_14.1" depart="35.00" departLane="E0_0" departPos="5.10" departSpeed="0.00" departDelay="5.00" arrival="71.00" arrivalLane="E9_0" arrivalPos="92.80" arrivalSpeed="11.21" duration="36.00" routeLength="194.90" waitingTime="0.00" waitingCount="0" stopTime="0.00" timeLoss="21.25" rerouteNo="0" devices="tripinfo_vehicle_14.1 emissions_vehicle_14.1" vType="type_0" speedFactor="0.97" vaporized="">
        <emissions CO_abs="3462.876375" CO2_abs="98833.509606" HC_abs="352.811282" PMx_abs="13.035161" NOx_abs="0" fuel_abs="32115.525610" electricity_abs="0"/>
    </tripinfo>
    <tripinfo id="vehicle_14.2" depart="40.00" departLane="E0_0" departPos="5.10" departSpeed="0.00" departDelay="10.00" arrival="73.00" arrivalLane="E9_0" arrivalPos="92.80" arrivalSpeed="12.23" duration="33.00" routeLength="194.90" waitingTime="0.00" waitingCount="0" stopTime="0.00" timeLoss="19.38" rerouteNo="0" devices="tripinfo_vehicle_14.2 emissions_vehicle_14.2" vType="type_0" speedFactor="1.18" vaporized="">
        <emissions CO_abs="3197.993600" CO2_abs="92850.338669" HC_abs="317.838839" PMx_abs="12.393228" NOx_abs="0" fuel_abs="30171.028931" electricity_abs="0"/>
    </tripinfo>
    <tripinfo id="vehicle_2" depart="0.00" departLane="-E1_0" departPos="5.10" departSpeed="0.00" departDelay="0.00" arrival="75.00" arrivalLane="E8_0" arrivalPos="92.80" arrivalSpeed="11.33" duration="75.00" routeLength="389.53" waitingTime="15.00" waitingCount="1" stopTime="0.00" timeLoss="40.06" rerouteNo="0" devices="tripinfo_vehicle_2 emissions_vehicle_2" vType="type_0" speedFactor="0.83" vaporized="">
        <emissions CO_abs="7354.104496" CO2_abs="202413.184316" HC_abs="779.672898" PMx_abs="25.662502" NOx_abs="0" fuel_abs="65776.859920" electricity_abs="0"/>
    </tripinfo>
    <tripinfo id="vehicle_2.1" depart="5.00" departLane="-E1_0" departPos="5.10" departSpeed="0.00" departDelay="5.00" arrival="85.00" arrivalLane="E8_0" arrivalPos="92.80" arrivalSpeed="14.33" duration="80.00" routeLength="389.53" waitingTime="22.00" waitingCount="2" stopTime="0.00" timeLoss="51.47" rerouteNo="0" devices="tripinfo_vehicle_2.1 emissions_vehicle_2.1" vType="type_0" speedFactor="1.05" vaporized="">
        <emissions CO_abs="8154.447477" CO2_abs="220695.504826" HC_abs="872.571070" PMx_abs="27.453247" NOx_abs="0" fuel_abs="71721.425837" electricity_abs="0"/>
    </tripinfo>
    <tripinfo id="vehicle_2.2" depart="10.00" departLane="-E1_0" departPos="5.10" departSpeed="0.00" departDelay="10.00" arrival="89.00" arrivalLane="E8_0" arrivalPos="92.80" arrivalSpeed="12.27" duration="79.00" routeLength="389.53" waitingTime="16.00" waitingCount="2" stopTime="0.00" timeLoss="45.54" rerouteNo="0" devices="tripinfo_vehicle_2.2 emissions_vehicle_2.2" vType="type_0" speedFactor="0.89" vaporized="">
        <emissions CO_abs="7447.051067" CO2_abs="203080.918462" HC_abs="821.460541" PMx_abs="24.846811" NOx_abs="0" fuel_abs="65994.524064" electricity_abs="0"/>
    </tripinfo>
    <tripinfo id="vehicle_8" depart="15.00" departLane="-E1_0" departPos="5.10" departSpeed="0.00" departDelay="6.00" arrival="90.00" arrivalLane="E8_0" arrivalPos="92.80" arrivalSpeed="13.03" duration="75.00" routeLength="389.53" waitingTime="14.00" waitingCount="2" stopTime="0.00" timeLoss="46.57" rerouteNo="0" devices="tripinfo_vehicle_8 emissions_vehicle_8" vType="type_0" speedFactor="1.02" vaporized="">
        <emissions CO_abs="7241.403503" CO2_abs="197124.155013" HC_abs="784.298565" PMx_abs="24.439805" NOx_abs="0" fuel_abs="64059.533395" electricity_abs="0"/>
    </tripinfo>
    <tripinfo id="vehicle_8.1" depart="20.00" departLane="-E1_0" departPos="5.10" departSpeed="0.00" departDelay="11.00" arrival="92.00" arrivalLane="E8_0" arrivalPos="92.80" arrivalSpeed="13.51" duration="72.00" routeLength="389.53" waitingTime="11.00" waitingCount="2" stopTime="0.00" timeLoss="42.86" rerouteNo="0" devices="tripinfo_vehicle_8.1 emissions_vehicle_8.1" vType="type_0" speedFactor="1.01" vaporized="">
        <emissions CO_abs="6790.965171" CO2_abs="188253.149985" HC_abs="729.645532" PMx_abs="23.490937" NOx_abs="0" fuel_abs="61175.420003" electricity_abs="0"/>
    </tripinfo>
    <tripinfo id="vehicle_8.2" depart="25.00" departLane="-E1_0" departPos="5.10" departSpeed="0.00" departDelay="16.00" arrival="93.00" arrivalLane="E8_0" arrivalPos="92.80" arrivalSpeed="13.03" duration="68.00" routeLength="389.53" waitingTime="7.00" waitingCount="1" stopTime="0.00" timeLoss="38.77" rerouteNo="0" devices="tripinfo_vehicle_8.2 emissions_vehicle_8.2" vType="type_0" speedFactor="0.97" vaporized="">
        <emissions CO_abs="6305.579736" CO2_abs="177239.171006" HC_abs="676.992642" PMx_abs="22.170724" NOx_abs="0" fuel_abs="57595.096901" electricity_abs="0"/>
    </tripinfo>
    <tripinfo id="vehicle_18" depart="40.00" departLane="-E8_0" departPos="5.10" departSpeed="0.00" departDelay="0.00" arrival="93.00" arrivalLane="E11_0" arrivalPos="92.80" arrivalSpeed="14.86" duration="53.00" routeLength="394.90" waitingTime="2.00" waitingCount="1" stopTime="0.00" timeLoss="26.54" rerouteNo="0" devices="tripinfo_vehicle_18 emissions_vehicle_18" vType="type_0" speedFactor="1.09" vaporized="">
        <emissions CO_abs="5159.389630" CO2_abs="157161.289709" HC_abs="517.273639" PMx_abs="20.484471" NOx_abs="0" fuel_abs="51067.192990" electricity_abs="0"/>
    </tripinfo>
    <tripinfo id="vehicle_12" depart="30.00" departLane="-E1_0" departPos="5.10" departSpeed="0.00" departDelay="5.00" arrival="95.00" arrivalLane="E8_0" arrivalPos="92.80" arrivalSpeed="13.93" duration="65.00" routeLength="389.53" waitingTime="6.00" waitingCount="1" stopTime="0.00" timeLoss="37.83" rerouteNo="0" devices="tripinfo_vehicle_12 emissions_vehicle_12" vType="type_0" speedFactor="1.18" vaporized="">
        <emissions CO_abs="5841.059900" CO2_abs="167863.020935" HC_abs="614.494158" PMx_abs="21.257309" NOx_abs="0" fuel_abs="54547.283887" electricity_abs="0"/>
    </tripinfo>
    <tripinfo id="vehicle_18.1" depart="45.00" departLane="-E8_0" departPos="5.10" departSpeed="0.00" departDelay="5.00" arrival="96.00" arrivalLane="E11_0" arrivalPos="92.80" arrivalSpeed="13.66" duration="51.00" routeLength="394.90" waitingTime="0.00" waitingCount="0" stopTime="0.00" timeLoss="21.87" rerouteNo="0" devices="tripinfo_vehicle_18.1 emissions_vehicle_18.1" vType="type_0" speedFactor="1.00" vaporized="">
        <emissions CO_abs="4577.926930" CO2_abs="144970.159598" HC_abs="473.543289" PMx_abs="18.603385" NOx_abs="0" fuel_abs="47102.702668" electricity_abs="0"/>
    </tripinfo>
    <tripinfo id="vehicle_12.1" depart="35.00" departLane="-E1_0" departPos="5.10" departSpeed="0.00" departDelay="10.00" arrival="97.00" arrivalLane="E8_0" arrivalPos="92.80" arrivalSpeed="13.90" duration="62.00" routeLength="389.53" waitingTime="5.00" waitingCount="1" stopTime="0.00" timeLoss="34.78" rerouteNo="0" devices="tripinfo_vehicle_12.1 emissions_vehicle_12.1" vType="type_0" speedFactor="1.15" vaporized="">
        <emissions CO_abs="5636.753428" CO2_abs="162946.037976" HC_abs="590.678813" PMx_abs="20.681056" NOx_abs="0" fuel_abs="52949.207054" electricity_abs="0"/>
    </tripinfo>
    <tripinfo id="vehicle_9.1" depart="35.00" departLane="-E11_0" departPos="5.10" departSpeed="0.00" departDelay="26.00" arrival="98.00" arrivalLane="E1_0" arrivalPos="92.80" arrivalSpeed="11.08" duration="63.00" routeLength="189.53" waitingTime="27.00" waitingCount="1" stopTime="0.00" timeLoss="45.27" rerouteNo="0" devices="tripinfo_vehicle_9.1 emissions_vehicle_9.1" vType="type_0" speedFactor="0.83" vaporized="">
        <emissions CO_abs="6824.836211" CO2_abs="167852.302993" HC_abs="732.122705" PMx_abs="20.887866" NOx_abs="0" fuel_abs="54555.264148" electricity_abs="0"/>
    </tripinfo>
    <tripinfo id="vehicle_12.2" depart="40.00" departLane="-E1_0" departPos="5.10" departSpeed="0.00" departDelay="15.00" arrival="98.00" arrivalLane="E8_0" arrivalPos="92.80" arrivalSpeed="13.65" duration="58.00" routeLength="389.53" waitingTime="4.00" waitingCount="1" stopTime="0.00" timeLoss="29.46" rerouteNo="0" devices="tripinfo_vehicle_12.2 emissions_vehicle_12.2" vType="type_0" speedFactor="1.01" vaporized="">
        <emissions CO_abs="5337.279293" CO2_abs="157239.751279" HC_abs="567.691781" PMx_abs="19.749859" NOx_abs="0" fuel_abs="51093.674420" electricity_abs="0"/>
    </tripinfo>
    <tripinfo id="vehicle_13" depart="45.00" departLane="-E1_0" departPos="5.10" departSpeed="0.00" departDelay="19.00" arrival="100.00" arrivalLane="E8_0" arrivalPos="92.80" arrivalSpeed="14.68" duration="55.00" routeLength="389.53" waitingTime="2.00" waitingCount="1" stopTime="0.00" timeLoss="28.04" rerouteNo="0" devices="tripinfo_vehicle_13 emissions_vehicle_13" vType="type_0" speedFactor="1.17" vaporized="">
        <emissions CO_abs="5150.895725" CO2_abs="153431.321256" HC_abs="526.703980" PMx_abs="19.742379" NOx_abs="0" fuel_abs="49856.337261" electricity_abs="0"/>
    </tripinfo>
    <tripinfo id="vehicle_18.2" depart="50.00" departLane="-E8_0" departPos="5.10" departSpeed="0.00" departDelay="10.00" arrival="100.00" arrivalLane="E11_0" arrivalPos="92.80" arrivalSpeed="12.27" duration="50.00" routeLength="394.90" waitingTime="0.00" waitingCount="0" stopTime="0.00" timeLoss="17.70" rerouteNo="0" devices="tripinfo_vehicle_18.2 emissions_vehicle_18.2" vType="type_0" speedFactor="0.90" vaporized="">
        <emissions CO_abs="3911.093320" CO2_abs="127438.070874" HC_abs="419.090367" PMx_abs="16.098157" NOx_abs="0" fuel_abs="41403.783510" electricity_abs="0"/>
    </tripinfo>
    <tripinfo id="vehicle_10" depart="40.00" departLane="-E11_0" departPos="5.10" departSpeed="0.00" departDelay="30.00" arrival="101.00" arrivalLane="E1_0" arrivalPos="92.80" arrivalSpeed="11.39" duration="61.00" routeLength="189.53" waitingTime="24.00" waitingCount="1" stopTime="0.00" timeLoss="43.92" rerouteNo="0" devices="tripinfo_vehicle_10 emissions_vehicle_10" vType="type_0" speedFactor="0.87" vaporized="">
        <emissions CO_abs="6650.578474" CO2_abs="165187.508859" HC_abs="713.144595" PMx_abs="20.591351" NOx_abs="0" fuel_abs="53688.267247" electricity_abs="0"/>
    </tripinfo>
    <tripinfo id="vehicle_10.1" depart="45.00" departLane="-E11_0" departPos="5.10" departSpeed="0.00" departDelay="35.00" arrival="103.00" arrivalLane="E1_0" arrivalPos="92.80" arrivalSpeed="11.55" duration="58.00" routeLength="189.53" waitingTime="21.00" waitingCount="1" stopTime="0.00" timeLoss="42.11" rerouteNo="0" devices="tripinfo_vehicle_10.1 emissions_vehicle_10.1" vType="type_0" speedFactor="0.92" vaporized="">
        <emissions CO_abs="6271.421496" CO2_abs="157359.359915" HC_abs="670.760817" PMx_abs="19.709961" NOx_abs="0" fuel_abs="51143.100944" electricity_abs="0"/>
    </tripinfo>
    <tripinfo id="vehicle_13.1" depart="50.00" departLane="-E1_0" departPos="5.10" departSpeed="0.00" departDelay="24.00" arrival="103.00" arrivalLane="E8_0" arrivalPos="92.80" arrivalSpeed="13.61" duration="53.00" routeLength="389.53" waitingTime="2.00" waitingCount="1" stopTime="0.00" timeLoss="23.67" rerouteNo="0" devices="tripinfo_vehicle_13.1 emissions_vehicle_13.1" vType="type_0" speedFactor="0.99" vaporized="">
        <emissions CO_abs="4617.564340" CO2_abs="142267.146840" HC_abs="493.548888" PMx_abs="17.843036" NOx_abs="0" fuel_abs="46225.698168" electricity_abs="0"/>
    </tripinfo>
    <tripinfo id="vehicle_10.2" depart="50.00" departLane="-E11_0" departPos="5.10" departSpeed="0.00" departDelay="40.00" arrival="105.00" arrivalLane="E1_0" arrivalPos="92.80" arrivalSpeed="12.18" duration="55.00" routeLength="189.53" waitingTime="18.00" waitingCount="1" stopTime="0.00" timeLoss="39.27" rerouteNo="0" devices="tripinfo_vehicle_10.2 emissions_vehicle_10.2" vType="type_0" speedFactor="0.95" vaporized="">
        <emissions CO_abs="5932.986811" CO2_abs="150587.882580" HC_abs="629.961481" PMx_abs="18.982511" NOx_abs="0" fuel_abs="48941.593388" electricity_abs="0"/>
    </tripinfo>
    <tripinfo id="vehicle_15" depart="55.00" departLane="-E1_0" departPos="5.10" departSpeed="0.00" departDelay="23.00" arrival="105.00" arrivalLane="E8_0" arrivalPos="92.80" arrivalSpeed="14.47" duration="50.00" routeLength="389.53" waitingTime="0.00" waitingCount="0" stopTime="0.00" timeLoss="23.04" rerouteNo="0" devices="tripinfo_vehicle_15 emissions_vehicle_15" vType="type_0" speedFactor="1.10" vaporized="">
        <emissions CO_abs="4414.150439" CO2_abs="136880.960210" HC_abs="446.941993" PMx_abs="17.721427" NOx_abs="0" fuel_abs="44476.221743" electricity_abs="0"/>
    </tripinfo>
    <tripinfo id="vehicle_11" depart="55.00" departLane="-E11_0" departPos="5.10" departSpeed="0.00" departDelay="38.00" arrival="107.00" arrivalLane="E1_0" arrivalPos="92.80" arrivalSpeed="12.61" duration="52.00" routeLength="189.53" waitingTime="14.00" waitingCount="1" stopTime="0.00" timeLoss="38.28" rerouteNo="0" devices="tripinfo_vehicle_11 emissions_vehicle_11" vType="type_0" speedFactor="1.13" vaporized="">
        <emissions CO_abs="5622.397766" CO2_abs="144481.234385" HC_abs="590.350030" PMx_abs="18.361303" NOx_abs="0" fuel_abs="46956.313214" electricity_abs="0"/>
    </tripinfo>
    <tripinfo id="vehicle_11.1" depart="60.00" departLane="-E11_0" departPos="5.10" departSpeed="0.00" departDelay="43.00" arrival="110.00" arrivalLane="E1_0" arrivalPos="92.80" arrivalSpeed="12.15" duration="50.00" routeLength="189.53" waitingTime="12.00" waitingCount="1" stopTime="0.00" timeLoss="33.97" rerouteNo="0" devices="tripinfo_vehicle_11.1 emissions_vehicle_11.1" vType="type_0" speedFactor="0.93" vaporized="">
        <emissions CO_abs="5340.687202" CO2_abs="138265.966234" HC_abs="569.465925" PMx_abs="17.473517" NOx_abs="0" fuel_abs="44935.172363" electricity_abs="0"/>
    </tripinfo>
    <tripinfo id="vehicle_17" depart="80.00" departLane="-E11_0" departPos="5.10" departSpeed="0.00" departDelay="42.00" arrival="118.00" arrivalLane="E1_0" arrivalPos="92.80" arrivalSpeed="12.06" duration="38.00" routeLength="189.53" waitingTime="1.00" waitingCount="1" stopTime="0.00" timeLoss="23.68" rerouteNo="0" devices="tripinfo_vehicle_17 emissions_vehicle_17" vType="type_0" speedFactor="1.04" vaporized="">
        <emissions CO_abs="3761.986776" CO2_abs="103412.901583" HC_abs="396.050913" PMx_abs="13.276164" NOx_abs="0" fuel_abs="33605.234184" electricity_abs="0"/>
    </tripinfo>
    <tripinfo id="vehicle_22" depart="61.00" departLane="E0_0" departPos="5.10" departSpeed="0.00" departDelay="0.00" arrival="118.00" arrivalLane="E9_0" arrivalPos="92.80" arrivalSpeed="11.41" duration="57.00" routeLength="194.90" waitingTime="21.00" waitingCount="1" stopTime="0.00" timeLoss="42.71" rerouteNo="0" devices="tripinfo_vehicle_22 emissions_vehicle_22" vType="type_0" speedFactor="1.00" vaporized="">
        <emissions CO_abs="6215.899529" CO2_abs="157261.737420" HC_abs="665.125479" PMx_abs="19.708287" NOx_abs="0" fuel_abs="51110.636708" electricity_abs="0"/>
    </tripinfo>
    <tripinfo id="vehicle_24" depart="67.00" departLane="-E9_0" departPos="5.10" departSpeed="0.00" departDelay="0.00" arrival="119.00" arrivalLane="-E0_0" arrivalPos="92.80" arrivalSpeed="11.23" duration="52.00" routeLength="194.90" waitingTime="14.00" waitingCount="1" stopTime="0.00" timeLoss="38.45" rerouteNo="0" devices="tripinfo_vehicle_24 emissions_vehicle_24" vType="type_0" speedFactor="1.08" vaporized="">
        <emissions CO_abs="5499.584032" CO2_abs="142309.860904" HC_abs="583.032532" PMx_abs="18.025907" NOx_abs="0" fuel_abs="46249.629746" electricity_abs="0"/>
    </tripinfo>
    <tripinfo id="vehicle_17.1" depart="85.00" departLane="-E11_0" departPos="5.10" departSpeed="0.00" departDelay="47.00" arrival="121.00" arrivalLane="E1_0" arrivalPos="92.80" arrivalSpeed="12.20" duration="36.00" routeLength="189.53" waitingTime="0.00" waitingCount="0" stopTime="0.00" timeLoss="21.19" rerouteNo="0" devices="tripinfo_vehicle_17.1 emissions_vehicle_17.1" vType="type_0" speedFactor="1.04" vaporized="">
        <emissions CO_abs="3600.356603" CO2_abs="101259.342809" HC_abs="377.029673" PMx_abs="13.060752" NOx_abs="0" fuel_abs="32904.375494" electricity_abs="0"/>
    </tripinfo>
    <tripinfo id="vehicle_22.1" depart="66.00" departLane="E0_0" departPos="5.10" departSpeed="0.00" departDelay="5.00" arrival="121.00" arrivalLane="E9_0" arrivalPos="92.80" arrivalSpeed="12.11" duration="55.00" routeLength="194.90" waitingTime="17.00" waitingCount="1" stopTime="0.00" timeLoss="38.62" rerouteNo="0" devices="tripinfo_vehicle_22.1 emissions_vehicle_22.1" vType="type_0" speedFactor="0.90" vaporized="">
        <emissions CO_abs="6040.834926" CO2_abs="154606.805075" HC_abs="638.103311" PMx_abs="19.576195" NOx_abs="0" fuel_abs="50247.196803" electricity_abs="0"/>
    </tripinfo>
    <tripinfo id="vehicle_24.1" depart="72.00" departLane="-E9_0" departPos="5.10" departSpeed="0.00" departDelay="5.00" arrival="121.00" arrivalLane="-E0_0" arrivalPos="92.80" arrivalSpeed="11.94" duration="49.00" routeLength="194.90" waitingTime="13.00" waitingCount="1" stopTime="0.00" timeLoss="35.22" rerouteNo="0" devices="tripinfo_vehicle_24.1 emissions_vehicle_24.1" vType="type_0" speedFactor="1.12" vaporized="">
        <emissions CO_abs="5207.721300" CO2_abs="136511.496796" HC_abs="544.483825" PMx_abs="17.465959" NOx_abs="0" fuel_abs="44364.639204" electricity_abs="0"/>
    </tripinfo>